Program Version,EnergyPlus, Version 25.2.0-cf7368216c, YMD=2026.04.17 18:23
1,5,Environment Title[],Latitude[deg],Longitude[deg],Time Zone[],Elevation[m]
2,8,Day of Simulation[],Month[],Day of Month[],DST Indicator[1=yes 0=no],Hour[],StartMinute[],EndMinute[],DayType
3,5,Cumulative Day of Simulation[],Month[],Day of Month[],DST Indicator[1=yes 0=no],DayType  ! When Daily Report Variables Requested
4,2,Cumulative Days of Simulation[],Month[]  ! When Monthly Report Variables Requested
5,1,Cumulative Days of Simulation[] ! When Run Period Report Variables Requested
6,1,Calendar Year of Simulation[] ! When Annual Report Variables Requested
7,1,Environment,Site Outdoor Air Drybulb Temperature [C] !TimeStep
8,1,Environment,Site Outdoor Air Relative Humidity [%] !TimeStep
9,1,Environment,Site Wind Speed [m/s] !TimeStep
10,1,Environment,Site Wind Direction [deg] !TimeStep
11,1,Environment,Site Diffuse Solar Radiation Rate per Area [W/m2] !TimeStep
12,1,Environment,Site Direct Solar Radiation Rate per Area [W/m2] !TimeStep
13,1,SPACE5-1,Zone People Occupant Count [] !TimeStep
838,1,SPACE5-1,Zone Air Temperature [C] !TimeStep
839,1,SPACE5-1,Zone Air Relative Humidity [%] !TimeStep
902,1,SPACE5-1,Zone Thermostat Heating Setpoint Temperature [C] !TimeStep
903,1,SPACE5-1,Zone Thermostat Cooling Setpoint Temperature [C] !TimeStep
1051,1,Whole Building,Facility Total HVAC Electricity Demand Rate [W] !TimeStep
1313,1,Site,Environmental Impact Total CO2 Emissions Carbon Equivalent Mass [kg] !TimeStep
1078,1,Electricity:HVAC [J] !TimeStep
End of Data Dictionary
1,RUNPERIOD 1,  40.65, -73.80,  -5.00,   5.00
2,1, 1, 1, 0, 1, 0.00,15.00,Tuesday
7,-9.049999999999999
8,43.25
9,8.4
10,305.0
11,0.0
12,0.0
13,0.0
838,16.78912408954238
839,30.199627094302873
902,12.8
903,40.0
1051,3045.9289447515
1313,0.0
1078,2741336.0502763498
2,1, 1, 1, 0, 1,15.00,30.00,Tuesday
7,-7.5
8,50.5
9,8.0
10,290.0
11,0.0
12,0.0
13,0.0
838,16.692482549070665
839,29.88125465771433
902,12.0
903,30.0
1051,2787.3324806449677
1313,0.0
1078,2508599.232580471
2,1, 1, 1, 0, 1,30.00,45.00,Tuesday
7,-5.95
8,57.75
9,7.6000000000000005
10,275.0
11,0.0
12,0.0
13,0.0
838,16.611804630579787
839,29.613737694530208
902,12.0
903,30.0
1051,2525.7976692128304
1313,0.0
1078,2273217.9022915475
2,1, 1, 1, 0, 1,45.00,60.00,Tuesday
7,-4.4
8,65.0
9,7.2
10,260.0
11,0.0
12,0.0
13,0.0
838,16.544537494839286
839,29.400899243721607
902,12.0
903,30.0
1051,2260.5307548941637
1313,0.0
1078,2034477.6794047472
2,1, 1, 1, 0, 2, 0.00,15.00,Tuesday
7,-4.4
8,65.75
9,6.7
10,262.5
11,0.0
12,0.0
13,0.0
838,16.48326091847177
839,29.33441018919493
902,12.0
903,30.0
1051,2303.135284959383
1313,0.0
1078,2072821.7564634448
2,1, 1, 1, 0, 2,15.00,30.00,Tuesday
7,-4.4
8,66.5
9,6.2
10,265.0
11,0.0
12,0.0
13,0.0
838,16.42857726434741
839,29.265754348961543
902,12.0
903,30.0
1051,2340.9958511639243
1313,0.0
1078,2106896.2660475317
2,1, 1, 1, 0, 2,30.00,45.00,Tuesday
7,-4.4
8,67.25
9,5.7
10,267.5
11,0.0
12,0.0
13,0.0
838,16.38203210937131
839,29.188530606786877
902,12.0
903,30.0
1051,2374.4084539287046
1313,0.0
1078,2136967.608535834
2,1, 1, 1, 0, 2,45.00,60.00,Tuesday
7,-4.4
8,68.0
9,5.2
10,270.0
11,0.0
12,0.0
13,0.0
838,16.343689639424383
839,29.10711920588895
902,12.0
903,30.0
1051,2403.7067969202085
1313,0.0
1078,2163336.1172281876
2,1, 1, 1, 0, 3, 0.00,15.00,Tuesday
7,-4.275
8,66.5
9,5.575
10,267.5
11,0.0
12,0.0
13,0.0
838,16.30173311115485
839,29.024491909924226
902,12.0
903,30.0
1051,2404.1143885107213
1313,0.0
1078,2163702.9496596493
2,1, 1, 1, 0, 3,15.00,30.00,Tuesday
7,-4.15
8,65.0
9,5.95
10,265.0
11,0.0
12,0.0
13,0.0
838,16.256293424746204
839,28.93040218252824
902,12.0
903,30.0
1051,2401.283216977054
1313,0.0
1078,2161154.895279349
2,1, 1, 1, 0, 3,30.00,45.00,Tuesday
7,-4.025
8,63.5
9,6.325
10,262.5
11,0.0
12,0.0
13,0.0
838,16.210434789170574
839,28.818604539111814
902,12.0
903,30.0
1051,2396.049144409391
1313,0.0
1078,2156444.229968452
2,1, 1, 1, 0, 3,45.00,60.00,Tuesday
7,-3.9
8,62.0
9,6.7
10,260.0
11,0.0
12,0.0
13,0.0
838,16.165705541333864
839,28.689083147887118
902,12.0
903,30.0
1051,2388.963032304987
1313,0.0
1078,2150066.7290744884
2,1, 1, 1, 0, 4, 0.00,15.00,Tuesday
7,-3.75
8,60.5
9,6.825
10,262.5
11,0.0
12,0.0
13,0.0
838,16.125908875811835
839,28.543576603863308
902,12.0
903,30.0
1051,2374.5890026956586
1313,0.0
1078,2137130.1024260926
2,1, 1, 1, 0, 4,15.00,30.00,Tuesday
7,-3.5999999999999996
8,59.0
9,6.95
10,265.0
11,0.0
12,0.0
13,0.0
838,16.09068004614751
839,28.387193126224602
902,12.0
903,30.0
1051,2359.059003076667
1313,0.0
1078,2123153.1027690005
2,1, 1, 1, 0, 4,30.00,45.00,Tuesday
7,-3.4499999999999997
8,57.5
9,7.075
10,267.5
11,0.0
12,0.0
13,0.0
838,16.058823155708666
839,28.22263834549881
902,12.0
903,30.0
1051,2342.425710449693
1313,0.0
1078,2108183.1394047234
2,1, 1, 1, 0, 4,45.00,60.00,Tuesday
7,-3.3
8,56.0
9,7.2
10,270.0
11,0.0
12,0.0
13,0.0
838,16.030017883929087
839,28.049599406391028
902,12.0
903,30.0
1051,2324.098348947522
1313,0.0
1078,2091688.5140527699
2,1, 1, 1, 0, 5, 0.00,15.00,Tuesday
7,-3.3
8,56.75
9,7.7250000000000005
10,270.0
11,0.0
12,0.0
13,0.0
838,15.997974442020817
839,27.87448140550271
902,12.0
903,30.0
1051,2334.5392583107587
1313,0.0
1078,2101085.3324796828
2,1, 1, 1, 0, 5,15.00,30.00,Tuesday
7,-3.3
8,57.5
9,8.25
10,270.0
11,0.0
12,0.0
13,0.0
838,15.962838046813852
839,27.695301420557954
902,12.0
903,30.0
1051,2344.272321585719
1313,0.0
1078,2109845.089427147
2,1, 1, 1, 0, 5,30.00,45.00,Tuesday
7,-3.3
8,58.25
9,8.775
10,270.0
11,0.0
12,0.0
13,0.0
838,15.92619540642906
839,27.510241346898205
902,12.0
903,30.0
1051,2353.420099951866
1313,0.0
1078,2118078.0899566794
2,1, 1, 1, 0, 5,45.00,60.00,Tuesday
7,-3.3
8,59.0
9,9.3
10,270.0
11,0.0
12,0.0
13,0.0
838,15.888818210892785
839,27.319832044580412
902,12.0
903,30.0
1051,2362.049017195915
1313,0.0
1078,2125844.1154763233
2,1, 1, 1, 0, 6, 0.00,15.00,Tuesday
7,-3.4499999999999997
8,59.75
9,8.65
10,267.5
11,0.0
12,0.0
13,0.0
838,15.864562896327001
839,27.121736919440494
902,12.0
903,30.0
1051,2400.4605074304704
1313,0.0
1078,2160414.4566874234
2,1, 1, 1, 0, 6,15.00,30.00,Tuesday
7,-3.5999999999999996
8,60.5
9,8.0
10,265.0
11,0.0
12,0.0
13,0.0
838,15.852239207937911
839,26.92862033858972
902,12.0
903,30.0
1051,2438.5232161402396
1313,0.0
1078,2194670.8945262157
2,1, 1, 1, 0, 6,30.00,45.00,Tuesday
7,-3.75
8,61.25
9,7.3500000000000005
10,262.5
11,0.0
12,0.0
13,0.0
838,15.847771553162591
839,26.747492156769876
902,12.0
903,30.0
1051,2476.0899120584077
1313,0.0
1078,2228480.920852567
2,1, 1, 1, 0, 6,45.00,60.00,Tuesday
7,-3.9
8,62.0
9,6.7
10,260.0
11,0.0
12,0.0
13,0.0
838,15.848387219822186
839,26.579448353731838
902,12.0
903,30.0
1051,2513.0213650326186
1313,0.0
1078,2261719.228529357
2,1, 1, 1, 0, 7, 0.00,15.00,Tuesday
7,-4.025
8,63.5
9,6.575
10,257.5
11,0.0
12,0.0
13,0.0
838,15.830527647902636
839,26.250977474662797
902,12.0
903,30.0
1051,3249.0212444636636
1313,0.0
1078,2924119.120017297
2,1, 1, 1, 0, 7,15.00,30.00,Tuesday
7,-4.15
8,65.0
9,6.45
10,255.0
11,0.0
12,0.0
13,0.0
838,15.808732874414273
839,25.832907426755803
902,12.0
903,30.0
1051,3271.406190416137
1313,0.0
1078,2944265.5713745235
2,1, 1, 1, 0, 7,30.00,45.00,Tuesday
7,-4.275
8,66.5
9,6.325
10,252.5
11,0.0
12,0.0
13,0.0
838,15.79071878495539
839,25.411008484844555
902,12.0
903,30.0
1051,3309.116002479569
1313,0.0
1078,2978204.4022316122
2,1, 1, 1, 0, 7,45.00,60.00,Tuesday
7,-4.4
8,68.0
9,6.2
10,250.0
11,0.0
12,0.0
13,0.0
838,15.775845546943751
839,25.026343838585852
902,12.0
903,30.0
1051,3346.1232933650313
1313,0.0
1078,3011510.964028528
2,1, 1, 1, 0, 8, 0.00,15.00,Tuesday
7,-4.125
8,65.75
9,6.8500000000000005
10,252.5
11,0.0
12,0.0
13,0.0
838,15.754013819835084
839,24.681873221575124
902,12.0
903,30.0
1051,3279.0480953265915
1313,0.0
1078,2951143.285793932
2,1, 1, 1, 0, 8,15.00,30.00,Tuesday
7,-3.85
8,63.5
9,7.5
10,255.0
11,3.0
12,98.0
13,0.0
838,15.726453407591036
839,24.43050235727564
902,12.0
903,30.0
1051,3213.5486083897667
1313,0.0
1078,2892193.74755079
2,1, 1, 1, 0, 8,30.00,45.00,Tuesday
7,-3.5749999999999997
8,61.25
9,8.15
10,257.5
11,19.75
12,159.75
13,0.0
838,15.695178282420226
839,24.2195295782442
902,12.0
903,30.0
1051,3145.828954522281
1313,0.0
1078,2831246.0590700535
2,1, 1, 1, 0, 8,45.00,60.00,Tuesday
7,-3.3
8,59.0
9,8.8
10,260.0
11,36.5
12,221.5
13,0.0
838,15.667429651677192
839,24.008507263607708
902,12.0
903,30.0
1051,3075.4499557598406
1313,0.0
1078,2767904.960183857
2,1, 1, 1, 0, 9, 0.00,15.00,Tuesday
7,-3.175
8,56.5
9,8.925
10,262.5
11,53.25
12,283.25
13,20.0
838,16.84120276212161
839,22.933873188497856
902,11.999999999999996
903,29.999999999999996
1051,3004.0286860913684
1313,0.0
1078,2703625.817482231
2,1, 1, 1, 0, 9,15.00,30.00,Tuesday
7,-3.05
8,54.0
9,9.05
10,265.0
11,70.0
12,345.0
13,20.0
838,17.96545432674783
839,22.731276632571117
902,11.999999999999998
903,29.999999999999996
1051,2922.5774590100614
1313,0.0
1078,2630319.7131090555
2,1, 1, 1, 0, 9,30.00,45.00,Tuesday
7,-2.925
8,51.5
9,9.175
10,267.5
11,76.25
12,403.0
13,20.0
838,18.6803537063531
839,22.666945164199895
902,12.000000000000004
903,30.000000000000007
1051,2847.3492157991304
1313,0.0
1078,2562614.2942192173
2,1, 1, 1, 0, 9,45.00,60.00,Tuesday
7,-2.8
8,49.0
9,9.3
10,270.0
11,82.5
12,461.0
13,20.0
838,19.320203320117734
839,23.34374321110714
902,12.0
903,30.0
1051,2773.2837337523215
1313,0.0
1078,2495955.3603770896
2,1, 1, 1, 0,10, 0.00,15.00,Tuesday
7,-2.6499999999999995
8,46.25
9,9.55
10,275.0
11,88.75
12,519.0
13,20.0
838,20.20946414057081
839,23.582816496958994
902,12.0
903,30.0
1051,2687.926402077278
1313,0.0
1078,2419133.76186955
2,1, 1, 1, 0,10,15.00,30.00,Tuesday
7,-2.5
8,43.5
9,9.8
10,280.0
11,95.0
12,577.0
13,20.0
838,21.055571925238215
839,23.888670223111625
902,12.0
903,30.0
1051,2597.544145350487
1313,0.0
1078,2337789.7308154386
2,1, 1, 1, 0,10,30.00,45.00,Tuesday
7,-2.35
8,40.75
9,10.05
10,285.0
11,108.5
12,558.0
13,20.0
838,21.64247932995482
839,24.058549915253476
902,12.0
903,30.0
1051,2511.211378170115
1313,0.0
1078,2260090.2403531037
2,1, 1, 1, 0,10,45.00,60.00,Tuesday
7,-2.2
8,38.0
9,10.3
10,290.0
11,122.0
12,539.0
13,20.0
838,22.169789827501617
839,24.290328371095516
902,12.0
903,30.0
1051,2424.107969714818
1313,0.0
1078,2181697.1727433368
2,1, 1, 1, 0,11, 0.00,15.00,Tuesday
7,-1.9250000000000003
8,37.25
9,10.175
10,282.5
11,135.5
12,520.0
13,20.0
838,22.729627101994176
839,25.073669300485946
902,12.0
903,30.0
1051,2297.1701295247267
1313,0.0
1078,2067453.1165722543
2,1, 1, 1, 0,11,15.00,30.00,Tuesday
7,-1.6500000000000001
8,36.5
9,10.05
10,275.0
11,149.0
12,501.0
13,20.0
838,23.20721890374417
839,25.942124318783755
902,12.0
903,30.0
1051,2167.921367520654
1313,0.0
1078,1951129.2307685888
2,1, 1, 1, 0,11,30.00,45.00,Tuesday
7,-1.375
8,35.75
9,9.925
10,267.5
11,162.5
12,410.5
13,20.0
838,23.647082768882367
839,26.842151452472464
902,12.0
903,30.0
1051,2039.3632413663142
1313,0.0
1078,1835426.917229683
2,1, 1, 1, 0,11,45.00,60.00,Tuesday
7,-1.1
8,35.0
9,9.8
10,260.0
11,176.0
12,320.0
13,20.0
838,24.032429717870016
839,27.42603522061559
902,12.0
903,30.0
1051,1922.1873641713519
1313,0.0
1078,1729968.6277542168
2,1, 1, 1, 0,12, 0.00,15.00,Tuesday
7,-1.25
8,34.5
9,9.55
10,265.0
11,189.5
12,229.5
13,16.0
838,24.3085870961023
839,28.233494450529626
902,12.0
903,30.0
1051,1907.4751318486303
1313,0.0
1078,1716727.6186637674
2,1, 1, 1, 0,12,15.00,30.00,Tuesday
7,-1.4
8,34.0
9,9.3
10,270.0
11,203.0
12,139.0
13,16.0
838,24.520888870093433
839,28.82070948591457
902,12.0
903,30.0
1051,1896.7552336346075
1313,0.0
1078,1707079.7102711466
2,1, 1, 1, 0,12,30.00,45.00,Tuesday
7,-1.5499999999999998
8,33.5
9,9.05
10,275.0
11,212.0
12,191.0
13,16.0
838,24.76546397565047
839,29.34146357585353
902,12.0
903,30.0
1051,1887.9428504761363
1313,0.0
1078,1699148.5654285226
2,1, 1, 1, 0,12,45.00,60.00,Tuesday
7,-1.7
8,33.0
9,8.8
10,280.0
11,221.0
12,243.0
13,16.0
838,25.000183238198062
839,29.89244866917397
902,12.0
903,30.0
1051,1879.600407010951
1313,0.0
1078,1691640.3663098556
2,1, 1, 1, 0,13, 0.00,15.00,Tuesday
7,-1.825
8,32.75
9,8.925
10,282.5
11,230.0
12,295.0
13,8.0
838,24.985037671460134
839,30.21184805282931
902,12.0
903,30.0
1051,1868.5437995260163
1313,0.0
1078,1681689.4195734146
2,1, 1, 1, 0,13,15.00,30.00,Tuesday
7,-1.9500000000000002
8,32.5
9,9.05
10,285.0
11,239.0
12,347.0
13,8.0
838,24.939846591170515
839,29.956250480222685
902,12.0
903,30.0
1051,1862.3801667266162
1313,0.0
1078,1676142.1500539547
2,1, 1, 1, 0,13,30.00,45.00,Tuesday
7,-2.075
8,32.25
9,9.175
10,287.5
11,197.75
12,260.25
13,8.0
838,25.000622563376794
839,29.54348647167064
902,12.0
903,30.0
1051,1857.0635204669165
1313,0.0
1078,1671357.168420225
2,1, 1, 1, 0,13,45.00,60.00,Tuesday
7,-2.2
8,32.0
9,9.3
10,290.0
11,156.5
12,173.5
13,8.0
838,25.08078507249431
839,29.172259552297977
902,12.0
903,30.0
1051,1854.1337098049958
1313,0.0
1078,1668720.3388244961
2,1, 1, 1, 0,14, 0.00,15.00,Tuesday
7,-2.475
8,35.5
9,8.9
10,292.5
11,115.25
12,86.75
13,16.0
838,25.379009336632677
839,29.167696598464715
902,12.0
903,30.0
1051,1892.2212440970745
1313,0.0
1078,1702999.1196873672
2,1, 1, 1, 0,14,15.00,30.00,Tuesday
7,-2.75
8,39.0
9,8.5
10,295.0
11,74.0
12,0.0
13,16.0
838,25.680349334748737
839,29.83157600968186
902,12.0
903,30.0
1051,1931.7944432495706
1313,0.0
1078,1738614.9989246135
2,1, 1, 1, 0,14,30.00,45.00,Tuesday
7,-3.0249999999999995
8,42.5
9,8.100000000000001
10,297.5
11,87.75
12,65.0
13,16.0
838,25.854986061071912
839,30.723464699313386
902,12.0
903,30.0
1051,1975.2335117380312
1313,0.0
1078,1777710.160564228
2,1, 1, 1, 0,14,45.00,60.00,Tuesday
7,-3.3
8,46.0
9,7.7
10,300.0
11,101.5
12,130.0
13,16.0
838,25.982952426231385
839,31.66159268328795
902,12.0
903,30.0
1051,2027.736370451026
1313,0.0
1078,1824962.7334059235
2,1, 1, 1, 0,15, 0.00,15.00,Tuesday
7,-3.175
8,42.5
9,8.225000000000001
10,297.5
11,115.25
12,195.0
13,20.0
838,26.11866853349115
839,32.558191891269495
902,12.0
903,30.0
1051,1963.3041404857875
1313,0.0
1078,1766973.7264372087
2,1, 1, 1, 0,15,15.00,30.00,Tuesday
7,-3.05
8,39.0
9,8.75
10,295.0
11,129.0
12,260.0
13,20.0
838,26.239418502691926
839,33.32297100504431
902,12.0
903,30.0
1051,1898.2083368984772
1313,0.0
1078,1708387.5032086298
2,1, 1, 1, 0,15,30.00,45.00,Tuesday
7,-2.925
8,35.5
9,9.275
10,292.5
11,112.25
12,208.5
13,20.0
838,26.34967002668876
839,34.08839109928438
902,12.0
903,30.0
1051,1844.6127745847652
1313,0.0
1078,1660151.4971262887
2,1, 1, 1, 0,15,45.00,60.00,Tuesday
7,-2.8
8,32.0
9,9.8
10,290.0
11,95.5
12,157.0
13,20.0
838,26.44961082661116
839,35.03605970319376
902,12.0
903,30.0
1051,1793.9278594532361
1313,0.0
1078,1614535.0735079125
2,1, 1, 1, 0,16, 0.00,15.00,Tuesday
7,-2.8
8,30.0
9,9.275
10,300.0
11,78.75
12,105.5
13,20.0
838,26.485462987228026
839,36.20268796835733
902,12.0
903,30.0
1051,1776.3412828525097
1313,0.0
1078,1598707.1545672587
2,1, 1, 1, 0,16,15.00,30.00,Tuesday
7,-2.8
8,28.0
9,8.75
10,310.0
11,62.0
12,54.0
13,20.0
838,26.52772638232623
839,37.06059021168409
902,12.0
903,30.0
1051,1752.94128298738
1313,0.0
1078,1577647.154688642
2,1, 1, 1, 0,16,30.00,45.00,Tuesday
7,-2.8
8,26.0
9,8.225000000000001
10,320.0
11,47.5
12,53.75
13,20.0
838,26.585001792460496
839,38.17300180815686
902,12.0
903,30.0
1051,1739.8807656851523
1313,0.0
1078,1565892.689116637
2,1, 1, 1, 0,16,45.00,60.00,Tuesday
7,-2.8
8,24.0
9,7.7
10,330.0
11,33.0
12,53.5
13,20.0
838,26.64088698425198
839,39.31052784721105
902,12.0
903,30.0
1051,1730.57412251816
1313,0.0
1078,1557516.710266344
2,1, 1, 1, 0,17, 0.00,15.00,Tuesday
7,-3.3499999999999996
8,26.75
9,8.100000000000001
10,330.0
11,18.5
12,53.25
13,20.0
838,26.522697714634816
839,40.48017631078661
902,12.0
903,30.0
1051,1860.6753610105638
1313,0.0
1078,1674607.8249095073
2,1, 1, 1, 0,17,15.00,30.00,Tuesday
7,-3.9
8,29.5
9,8.5
10,330.0
11,4.0
12,53.0
13,20.0
838,26.37625173536802
839,41.89089177613104
902,12.0
903,30.0
1051,1997.2470871660657
1313,0.0
1078,1797522.378449459
2,1, 1, 1, 0,17,30.00,45.00,Tuesday
7,-4.45
8,32.25
9,8.9
10,330.0
11,0.0
12,0.0
13,20.0
838,26.27695929277282
839,43.04923024150693
902,12.0
903,30.0
1051,2137.7910588780014
1313,0.0
1078,1924011.9529902013
2,1, 1, 1, 0,17,45.00,60.00,Tuesday
7,-5.0
8,35.0
9,9.3
10,330.0
11,0.0
12,0.0
13,20.0
838,26.173132329933104
839,44.10128950679622
902,12.0
903,30.0
1051,2281.051497307507
1313,0.0
1078,2052946.3475767563
2,1, 1, 1, 0,18, 0.00,15.00,Tuesday
7,-5.15
8,33.75
9,9.675
10,327.5
11,0.0
12,0.0
13,20.0
838,26.064913349077248
839,45.03811133430818
902,12.0
903,30.0
1051,2322.5365339427444
1313,0.0
1078,2090282.8805484702
2,1, 1, 1, 0,18,15.00,30.00,Tuesday
7,-5.3
8,32.5
9,10.05
10,325.0
11,0.0
12,0.0
13,20.0
838,25.954728841878513
839,45.8602894013688
902,12.0
903,30.0
1051,2365.984482495065
1313,0.0
1078,2129386.0342455585
2,1, 1, 1, 0,18,30.00,45.00,Tuesday
7,-5.449999999999999
8,31.25
9,10.425
10,322.5
11,0.0
12,0.0
13,20.0
838,25.842422183775724
839,46.572494066849664
902,12.0
903,30.0
1051,2411.333608913007
1313,0.0
1078,2170200.248021706
2,1, 1, 1, 0,18,45.00,60.00,Tuesday
7,-5.6
8,30.0
9,10.8
10,320.0
11,0.0
12,0.0
13,20.0
838,25.729465282415305
839,47.17385155682272
902,12.0
903,30.0
1051,2455.9628951791697
1313,0.0
1078,2210366.6056612525
2,1, 1, 1, 0,19, 0.00,15.00,Tuesday
7,-5.725
8,30.25
9,10.425
10,320.0
11,0.0
12,0.0
13,10.0
838,24.93681633051626
839,48.636062605449894
902,12.0
903,30.0
1051,1746.0921176310937
1313,0.0
1078,1571482.9058679843
2,1, 1, 1, 0,19,15.00,30.00,Tuesday
7,-5.85
8,30.5
9,10.05
10,320.0
11,0.0
12,0.0
13,10.0
838,24.119087974814796
839,49.47682778743332
902,12.0
903,30.0
1051,1760.0200591432304
1313,0.0
1078,1584018.0532289075
2,1, 1, 1, 0,19,30.00,45.00,Tuesday
7,-5.975
8,30.75
9,9.675
10,320.0
11,0.0
12,0.0
13,10.0
838,23.646224612071446
839,49.88025276925831
902,12.0
903,30.0
1051,1775.2183496540647
1313,0.0
1078,1597696.5146886583
2,1, 1, 1, 0,19,45.00,60.00,Tuesday
7,-6.1
8,31.0
9,9.3
10,320.0
11,0.0
12,0.0
13,10.0
838,23.275260551894533
839,49.91412204841511
902,12.0
903,30.0
1051,1789.9619008728869
1313,0.0
1078,1610965.710785598
2,1, 1, 1, 0,20, 0.00,15.00,Tuesday
7,-6.249999999999999
8,31.5
9,9.8
10,320.0
11,0.0
12,0.0
13,2.0
838,22.70657976620228
839,50.18997769686711
902,12.0
903,30.0
1051,1789.8100100359673
1313,0.0
1078,1610829.0090323705
2,1, 1, 1, 0,20,15.00,30.00,Tuesday
7,-6.4
8,32.0
9,10.3
10,320.0
11,0.0
12,0.0
13,2.0
838,22.102902271547723
839,50.20606459443321
902,12.0
903,30.0
1051,1809.703596541129
1313,0.0
1078,1628733.2368870159
2,1, 1, 1, 0,20,30.00,45.00,Tuesday
7,-6.550000000000001
8,32.5
9,10.8
10,320.0
11,0.0
12,0.0
13,2.0
838,21.642352640971907
839,49.91271529409264
902,12.0
903,30.0
1051,1831.324865386035
1313,0.0
1078,1648192.3788474314
2,1, 1, 1, 0,20,45.00,60.00,Tuesday
7,-6.7
8,33.0
9,11.3
10,320.0
11,0.0
12,0.0
13,2.0
838,21.26103707330995
839,49.49548956055406
902,12.0
903,30.0
1051,1853.953509579204
1313,0.0
1078,1668558.1586212835
2,1, 1, 1, 0,21, 0.00,15.00,Tuesday
7,-7.1000000000000005
8,30.5
9,11.175
10,320.0
11,0.0
12,0.0
13,2.0
838,20.772564918832877
839,49.49562203088991
902,12.0
903,30.0
1051,1924.6027329027356
1313,0.0
1078,1732142.4596124622
2,1, 1, 1, 0,21,15.00,30.00,Tuesday
7,-7.5
8,28.0
9,11.05
10,320.0
11,0.0
12,0.0
13,2.0
838,20.28012253648758
839,49.608613996340544
902,12.0
903,30.0
1051,1997.101476817983
1313,0.0
1078,1797391.3291361844
2,1, 1, 1, 0,21,30.00,45.00,Tuesday
7,-7.9
8,25.5
9,10.925
10,320.0
11,0.0
12,0.0
13,2.0
838,19.92266540916318
839,49.39480328495936
902,12.0
903,30.0
1051,2071.60020641939
1313,0.0
1078,1864440.185777451
2,1, 1, 1, 0,21,45.00,60.00,Tuesday
7,-8.3
8,23.0
9,10.8
10,320.0
11,0.0
12,0.0
13,2.0
838,19.613592218216322
839,49.11124072318118
902,12.0
903,30.0
1051,2148.231668610328
1313,0.0
1078,1933408.5017492953
2,1, 1, 1, 0,22, 0.00,15.00,Tuesday
7,-8.575000000000001
8,23.75
9,9.900000000000002
10,322.5
11,0.0
12,0.0
13,0.0
838,19.24389301814426
839,49.00654884602346
902,12.0
903,30.0
1051,2202.098606291799
1313,0.0
1078,1981888.745662619
2,1, 1, 1, 0,22,15.00,30.00,Tuesday
7,-8.850000000000001
8,24.5
9,9.0
10,325.0
11,0.0
12,0.0
13,0.0
838,18.903563264730842
839,48.870693679699215
902,12.0
903,30.0
1051,2313.609719453775
1313,0.0
1078,2082248.7475083976
2,1, 1, 1, 0,22,30.00,45.00,Tuesday
7,-9.125
8,25.25
9,8.100000000000001
10,327.5
11,0.0
12,0.0
13,0.0
838,18.643716240596703
839,48.64465630055618
902,12.0
903,30.0
1051,2446.84901064837
1313,0.0
1078,2202164.109583533
2,1, 1, 1, 0,22,45.00,60.00,Tuesday
7,-9.4
8,26.0
9,7.2
10,330.0
11,0.0
12,0.0
13,0.0
838,18.43162804078524
839,48.40886398206571
902,12.0
903,30.0
1051,2575.8325874170123
1313,0.0
1078,2318249.328675311
2,1, 1, 1, 0,23, 0.00,15.00,Tuesday
7,-9.55
8,26.75
9,7.7250000000000005
10,330.0
11,0.0
12,0.0
13,0.0
838,18.216725660074015
839,48.19700870197748
902,12.0
903,30.0
1051,2677.0025875490783
1313,0.0
1078,2409302.3287941706
2,1, 1, 1, 0,23,15.00,30.00,Tuesday
7,-9.7
8,27.5
9,8.25
10,330.0
11,0.0
12,0.0
13,0.0
838,17.98810807698453
839,47.95043519249826
902,12.0
903,30.0
1051,2776.679976655775
1313,0.0
1078,2499011.9789901976
2,1, 1, 1, 0,23,30.00,45.00,Tuesday
7,-9.85
8,28.25
9,8.775
10,330.0
11,0.0
12,0.0
13,0.0
838,17.775785824101135
839,47.59301388618513
902,12.0
903,30.0
1051,2874.2345645479872
1313,0.0
1078,2586811.1080931886
2,1, 1, 1, 0,23,45.00,60.00,Tuesday
7,-10.0
8,29.0
9,9.3
10,330.0
11,0.0
12,0.0
13,0.0
838,17.566017530012534
839,47.187875778484035
902,12.0
903,30.0
1051,2953.957332648246
1313,0.0
1078,2658561.5993834212
2,1, 1, 1, 0,24, 0.00,15.00,Tuesday
7,-10.15
8,30.75
9,9.175
10,327.5
11,0.0
12,0.0
13,0.0
838,17.38708769520827
839,46.72276044981526
902,12.0
903,30.0
1051,3038.343050625321
1313,0.0
1078,2734508.745562789
2,1, 1, 1, 0,24,15.00,30.00,Tuesday
7,-10.3
8,32.5
9,9.05
10,325.0
11,0.0
12,0.0
13,0.0
838,17.22560782124239
839,46.262006505299894
902,12.0
903,30.0
1051,3128.225600769081
1313,0.0
1078,2815403.040692173
2,1, 1, 1, 0,24,30.00,45.00,Tuesday
7,-10.45
8,34.25
9,8.925
10,322.5
11,0.0
12,0.0
13,0.0
838,17.073325063725314
839,45.82575260993632
902,12.0
903,30.0
1051,3216.891247469704
1313,0.0
1078,2895202.1227227338
2,1, 1, 1, 0,24,45.00,60.00,Tuesday
7,-10.6
8,36.0
9,8.8
10,320.0
11,0.0
12,0.0
13,0.0
838,16.928732176330513
839,45.40592683302218
902,12.0
903,30.0
1051,3304.4138551485726
1313,0.0
1078,2973972.469633715
2,2, 1, 2, 0, 1, 0.00,15.00,Wednesday
7,-10.725
8,36.75
9,8.525
10,320.0
11,0.0
12,0.0
13,0.0
838,16.794833882868925
839,44.98154906713504
902,12.0
903,30.0
1051,3385.2510890077674
1313,0.0
1078,3046725.980106991
2,2, 1, 2, 0, 1,15.00,30.00,Wednesday
7,-10.85
8,37.5
9,8.25
10,320.0
11,0.0
12,0.0
13,0.0
838,16.6711085333178
839,44.564324231526015
902,12.0
903,30.0
1051,3464.3480760851044
1313,0.0
1078,3117913.268476594
2,2, 1, 2, 0, 1,30.00,45.00,Wednesday
7,-10.975
8,38.25
9,7.9750000000000005
10,320.0
11,0.0
12,0.0
13,0.0
838,16.55609590276547
839,44.1568553816786
902,12.0
903,30.0
1051,3541.6646036482757
1313,0.0
1078,3187498.143283448
2,2, 1, 2, 0, 1,45.00,60.00,Wednesday
7,-11.1
8,39.0
9,7.7
10,320.0
11,0.0
12,0.0
13,0.0
838,16.4489312155511
839,43.76001805538443
902,12.0
903,30.0
1051,3617.177107942934
1313,0.0
1078,3255459.397148641
2,2, 1, 2, 0, 2, 0.00,15.00,Wednesday
7,-11.25
8,39.75
9,7.075
10,325.0
11,0.0
12,0.0
13,0.0
838,16.35515542003779
839,43.38031930300345
902,12.0
903,30.0
1051,3695.7380359157464
1313,0.0
1078,3326164.232324172
2,2, 1, 2, 0, 2,15.00,30.00,Wednesday
7,-11.399999999999999
8,40.5
9,6.45
10,330.0
11,0.0
12,0.0
13,0.0
838,16.27397836974113
839,43.03080838729622
902,12.0
903,30.0
1051,3772.7270578259654
1313,0.0
1078,3395454.352043369
2,2, 1, 2, 0, 2,30.00,45.00,Wednesday
7,-11.549999999999999
8,41.25
9,5.825
10,335.0
11,0.0
12,0.0
13,0.0
838,16.20295688878692
839,42.717888047695524
902,12.0
903,30.0
1051,3847.635180831439
1313,0.0
1078,3462871.662748295
2,2, 1, 2, 0, 2,45.00,60.00,Wednesday
7,-11.7
8,42.0
9,5.2
10,340.0
11,0.0
12,0.0
13,0.0
838,16.140676103212417
839,42.44111638391752
902,12.0
903,30.0
1051,3920.372686788241
1313,0.0
1078,3528335.418109417
2,2, 1, 2, 0, 3, 0.00,15.00,Wednesday
7,-11.7
8,42.5
9,4.550000000000001
10,340.0
11,0.0
12,0.0
13,0.0
838,16.087340916533133
839,42.208452170449
902,12.0
903,30.0
1051,3961.0094975962916
1313,0.0
1078,3564908.5478366623
2,2, 1, 2, 0, 3,15.00,30.00,Wednesday
7,-11.7
8,43.0
9,3.9000000000000004
10,340.0
11,0.0
12,0.0
13,0.0
838,16.04234041658461
839,42.01011527019414
902,12.0
903,30.0
1051,3999.852394835893
1313,0.0
1078,3599867.1553523038
2,2, 1, 2, 0, 3,30.00,45.00,Wednesday
7,-11.7
8,43.5
9,3.25
10,340.0
11,0.0
12,0.0
13,0.0
838,16.004563428413576
839,41.848094746861705
902,12.0
903,30.0
1051,4036.8291080978856
1313,0.0
1078,3633146.197288097
2,2, 1, 2, 0, 3,45.00,60.00,Wednesday
7,-11.7
8,44.0
9,2.6
10,340.0
11,0.0
12,0.0
13,0.0
838,15.97327474307773
839,41.72347494934909
902,12.0
903,30.0
1051,4072.0017017766177
1313,0.0
1078,3664801.531598956
2,2, 1, 2, 0, 4, 0.00,15.00,Wednesday
7,-11.7
8,44.5
9,2.6
10,337.5
11,0.0
12,0.0
13,0.0
838,15.935820037370068
839,41.618276262953025
902,12.0
903,30.0
1051,4105.369729634712
1313,0.0
1078,3694832.7566712406
2,2, 1, 2, 0, 4,15.00,30.00,Wednesday
7,-11.7
8,45.0
9,2.6
10,335.0
11,0.0
12,0.0
13,0.0
838,15.892848306592482
839,41.51912011473307
902,12.0
903,30.0
1051,4136.932149232007
1313,0.0
1078,3723238.9343088064
2,2, 1, 2, 0, 4,30.00,45.00,Wednesday
7,-11.7
8,45.5
9,2.6
10,332.5
11,0.0
12,0.0
13,0.0
838,15.847997396450348
839,41.41428974442329
902,12.0
903,30.0
1051,4166.950106156446
1313,0.0
1078,3750255.0955408015
2,2, 1, 2, 0, 4,45.00,60.00,Wednesday
7,-11.7
8,46.0
9,2.6
10,330.0
11,0.0
12,0.0
13,0.0
838,15.803178640719775
839,41.303906580393026
902,12.0
903,30.0
1051,4195.59358838758
1313,0.0
1078,3776034.229548822
2,2, 1, 2, 0, 5, 0.00,15.00,Wednesday
7,-11.825
8,47.25
9,2.6
10,322.5
11,0.0
12,0.0
13,0.0
838,15.758750393320128
839,41.19175541928974
902,12.0
903,30.0
1051,4248.085737522382
1313,0.0
1078,3823277.163770144
2,2, 1, 2, 0, 5,15.00,30.00,Wednesday
7,-11.95
8,48.5
9,2.6
10,315.0
11,0.0
12,0.0
13,0.0
838,15.714943590743717
839,41.079394034614495
902,12.0
903,30.0
1051,4299.284547957272
1313,0.0
1078,3869356.0931615443
2,2, 1, 2, 0, 5,30.00,45.00,Wednesday
7,-12.075
8,49.75
9,2.6
10,307.5
11,0.0
12,0.0
13,0.0
838,15.672066270678405
839,40.96636022229521
902,12.0
903,30.0
1051,4348.284201342414
1313,0.0
1078,3913455.7812081724
2,2, 1, 2, 0, 5,45.00,60.00,Wednesday
7,-12.2
8,51.0
9,2.6
10,300.0
11,0.0
12,0.0
13,0.0
838,15.630160223397912
839,40.85223329790747
902,12.0
903,30.0
1051,4396.5092031271315
1313,0.0
1078,3956858.282814418
2,2, 1, 2, 0, 6, 0.00,15.00,Wednesday
7,-12.075
8,50.5
9,2.85
10,302.5
11,0.0
12,0.0
13,0.0
838,15.58497245370221
839,40.73255901915164
902,12.0
903,30.0
1051,4393.658811560522
1313,0.0
1078,3954292.9304044694
2,2, 1, 2, 0, 6,15.00,30.00,Wednesday
7,-11.95
8,50.0
9,3.1
10,305.0
11,0.0
12,0.0
13,0.0
838,15.536948778886805
839,40.59819141848103
902,12.0
903,30.0
1051,4389.977927978499
1313,0.0
1078,3950980.1351806493
2,2, 1, 2, 0, 6,30.00,45.00,Wednesday
7,-11.825
8,49.5
9,3.35
10,307.5
11,0.0
12,0.0
13,0.0
838,15.487620363387741
839,40.444658652279095
902,12.0
903,30.0
1051,4422.871945043007
1313,0.0
1078,3980584.750538707
2,2, 1, 2, 0, 6,45.00,60.00,Wednesday
7,-11.7
8,49.0
9,3.6
10,310.0
11,0.0
12,0.0
13,0.0
838,15.438173557281685
839,40.27119317155585
902,12.0
903,30.0
1051,4520.434558201767
1313,0.0
1078,4068391.10238159
2,2, 1, 2, 0, 7, 0.00,15.00,Wednesday
7,-11.7
8,49.0
9,3.225
10,305.0
11,0.0
12,0.0
13,0.0
838,15.380897870090747
839,39.5740687627201
902,12.0
903,30.0
1051,5608.686320725557
1313,0.0
1078,5047817.688653002
2,2, 1, 2, 0, 7,15.00,30.00,Wednesday
7,-11.7
8,49.0
9,2.85
10,300.0
11,0.0
12,0.0
13,0.0
838,15.333176184915573
839,38.577226103847885
902,12.0
903,30.0
1051,5626.33989310653
1313,0.0
1078,5063705.9037958775
2,2, 1, 2, 0, 7,30.00,45.00,Wednesday
7,-11.7
8,49.0
9,2.475
10,295.0
11,0.0
12,0.0
13,0.0
838,15.298659847659788
839,37.54359101150553
902,12.0
903,30.0
1051,5643.856047759662
1313,0.0
1078,5079470.442983696
2,2, 1, 2, 0, 7,45.00,60.00,Wednesday
7,-11.7
8,49.0
9,2.1
10,290.0
11,0.0
12,0.0
13,0.0
838,15.274176330373836
839,36.58939147559598
902,12.0
903,30.0
1051,5652.5947158411
1313,0.0
1078,5087335.24425699
2,2, 1, 2, 0, 8, 0.00,15.00,Wednesday
7,-11.549999999999999
8,49.0
9,2.35
10,300.0
11,0.0
12,0.0
13,0.0
838,15.245126988694448
839,35.71375132670145
902,12.0
903,30.0
1051,5653.937085709881
1313,0.0
1078,5088543.377138893
2,2, 1, 2, 0, 8,15.00,30.00,Wednesday
7,-11.399999999999999
8,49.0
9,2.6
10,310.0
11,4.0
12,78.0
13,0.0
838,15.211823646021017
839,35.080883939311946
902,12.0
903,30.0
1051,5608.886525785904
1313,0.0
1078,5047997.873207314
2,2, 1, 2, 0, 8,30.00,45.00,Wednesday
7,-11.25
8,49.0
9,2.85
10,320.0
11,28.0
12,127.5
13,0.0
838,15.175880432033097
839,34.562300336535294
902,12.0
903,30.0
1051,5403.643688685216
1313,0.0
1078,4863279.3198166955
2,2, 1, 2, 0, 8,45.00,60.00,Wednesday
7,-11.1
8,49.0
9,3.1
10,330.0
11,52.0
12,177.0
13,0.0
838,15.14490154515748
839,34.06800309450274
902,12.0
903,30.0
1051,5301.790055809353
1313,0.0
1078,4771611.050228418
2,2, 1, 2, 0, 9, 0.00,15.00,Wednesday
7,-10.975
8,48.5
9,3.225
10,330.0
11,76.0
12,226.5
13,20.0
838,16.317337716655828
839,31.96303880213965
902,11.999999999999996
903,29.999999999999996
1051,5233.982328423385
1313,0.0
1078,4710584.095581047
2,2, 1, 2, 0, 9,15.00,30.00,Wednesday
7,-10.85
8,48.0
9,3.35
10,330.0
11,100.0
12,276.0
13,20.0
838,17.45298266965219
839,30.6142962946494
902,11.999999999999998
903,29.999999999999996
1051,5155.655238934594
1313,0.0
1078,4640089.7150411345
2,2, 1, 2, 0, 9,30.00,45.00,Wednesday
7,-10.725
8,47.5
9,3.475
10,330.0
11,109.25
12,254.0
13,20.0
838,18.178533451087397
839,29.946334166813465
902,12.000000000000005
903,30.000000000000007
1051,5085.395731177676
1313,0.0
1078,4576856.158059908
2,2, 1, 2, 0, 9,45.00,60.00,Wednesday
7,-10.6
8,47.0
9,3.6
10,330.0
11,118.5
12,232.0
13,20.0
838,18.779548534836493
839,29.58175383129076
902,12.0
903,30.0
1051,5016.88813073895
1313,0.0
1078,4515199.317665055
2,2, 1, 2, 0,10, 0.00,15.00,Wednesday
7,-10.174999999999999
8,45.25
9,3.6
10,325.0
11,127.75